7
Lattice="5.0 0.0 0.0 0.0 5.0 0.0 0.0 0.0 5.0" Properties=species:S:1:pos:R:3:forces:R:3 init_method=box calculator=MACECalculator status=locally_optimized go_method=random id=1 lo_method=asebfgs relaxed=T energy=-2794.729771046076 free_energy=-2794.729771046076 stress="-0.020901334968049624 -0.0006715483826192029 0.0009273888201524364 -0.0006715483826192029 -0.044239219132846126 0.015810259139463885 0.0009273888201524364 0.015810259139463885 -0.044531956495461704" pbc="T T T"
C        2.23132637       2.48112354      -0.33862619      -0.00121591      -0.00939452       0.02183673
C        2.17836164       5.67498865       1.45878260      -0.00348370      -0.02698091       0.03264744
C        1.55075292      -0.10631897       2.25095157       0.00428579       0.00283897       0.01106290
C        1.62771280       3.27952712       3.88725027      -0.00779755      -0.00662713      -0.03404403
C        2.32256620       1.56530576       0.56013709       0.00186484       0.01761951      -0.00871797
C        0.83372493       4.08905680       3.06518113       0.02851141      -0.01720958      -0.01567503
Na      -0.11706256       3.98223201       3.15812740      -0.02216487       0.03975366      -0.00711004
7
Lattice="5.0 0.0 0.0 0.0 5.0 0.0 0.0 0.0 5.0" Properties=species:S:1:pos:R:3:forces:R:3 init_method=box calculator=MACECalculator status=locally_optimized go_method=random id=1 lo_method=asebfgs relaxed=T energy=-2794.456291396162 free_energy=-2794.456291396162 stress="0.03293083943927965 0.014283406975084947 -0.007369160286690325 0.014283406975084947 -0.04032217615271436 0.014546467903948321 -0.007369160286690325 0.014546467903948321 -0.04228214801032577" pbc="T T T"
C        2.23132637       2.48112354      -0.33862619       0.14400229      -0.44135086       0.35464100
C        2.17836164       5.67498865       1.45878260      -0.73275579      -0.60743563       0.50541682
C        1.52137521      -0.13482682       2.24386138       0.72383421       1.00228162      -0.58336754
C        1.61018939       3.24467026       3.88531640      -0.30838868       0.70742676      -0.39711888
C        2.32256620       1.56530576       0.56013709       0.17998576      -0.38582663       0.38624406
C        0.83696452       4.10675297       3.10515454      -7.09375378      -1.47954170      -0.28622055
Na      -0.16467730       3.97069787       3.12709830       7.08707600       1.20444643       0.02040510
7
Lattice="5.0 0.0 0.0 0.0 5.0 0.0 0.0 0.0 5.0" Properties=species:S:1:pos:R:3:forces:R:3 init_method=box calculator=MACECalculator status=locally_optimized go_method=random id=1 lo_method=asebfgs relaxed=T energy=-2794.588905604035 free_energy=-2794.588905604035 stress="0.019708449659981735 0.012505825515776012 -0.010663960341360447 0.012505825515776012 -0.03870939169484759 0.01154282455081453 -0.010663960341360447 0.01154282455081453 -0.03953991721149182" pbc="T T T"
C        2.23516742       2.49846132      -0.32528283       0.03425363      -0.39075929       0.12592443
C        2.17719302       5.67165500       1.46064064      -0.63734712      -0.45911702       0.39342296
C        1.52137521      -0.13482682       2.24386138       0.62141164       1.05397647      -0.64415846
C        1.63016407       3.24642304       3.85600623       0.18130318       0.03227919       0.37276430
C        2.32256620       1.56530576       0.56013709       0.05654268      -0.18073716       0.31136962
C        0.83696452       4.10675297       3.10515454      -5.76895085      -1.08178578       0.07436153
Na      -0.13847213       3.96446659       3.20765225       5.51278685       1.02614359      -0.63368438
7
Lattice="5.0 0.0 0.0 0.0 5.0 0.0 0.0 0.0 5.0" Properties=species:S:1:pos:R:3:forces:R:3 init_method=box calculator=MACECalculator status=locally_optimized go_method=random id=1 lo_method=asebfgs relaxed=T energy=-2794.518308370289 free_energy=-2794.518308370289 stress="0.007941813453068939 0.020623562178018882 -0.01888995156443182 0.020623562178018882 -0.04957399465387849 0.02154621818878895 -0.01888995156443182 0.02154621818878895 -0.048464611653491814" pbc="T T T"
C        2.16067232       2.45167769      -0.37639384       1.52983697      -2.08306205       2.20578374
C        2.17719302       5.67165500       1.46064064      -0.78331937      -0.41578955       0.32734519
C        1.52903365      -0.15118403       2.26078503       0.93230634       1.57712519      -1.16675119
C        1.64555892       3.23421552       3.84577609      -1.08273088       1.46170967      -1.18423142
C        2.32256620       1.56530576       0.56013709      -0.16697605      -0.56029243       0.47183806
C        0.83083552       4.10804471       3.10173911      -5.09726639      -0.82824444      -0.15389251
Na      -0.13847213       3.96446659       3.20765225       4.66814937       0.84855360      -0.50009186
7
Lattice="5.0 0.0 0.0 0.0 5.0 0.0 0.0 0.0 5.0" Properties=species:S:1:pos:R:3:forces:R:3 init_method=box calculator=MACECalculator status=locally_optimized go_method=random id=1 lo_method=asebfgs relaxed=T energy=-2794.611256125583 free_energy=-2794.611256125583 stress="-0.006434893110669865 0.012194236007223271 -0.011376696773195057 0.012194236007223271 -0.05109112822197804 0.02321109321497339 -0.011376696773195057 0.02321109321497339 -0.05060464604604377" pbc="T T T"
C        2.13923670       2.45964389      -0.31110762       0.84433953      -0.49546496       0.33457581
C        2.13967200       5.62252396       1.42374118      -0.34771138      -0.25345227       0.63446099
C        1.52903365      -0.15118403       2.26078503       0.39979032       1.00489924      -0.76439175
C        1.64555892       3.23421552       3.84577609      -0.47473787       0.40481315       0.02445524
C        2.33416735       1.55316749       0.56665435      -0.24958058      -0.75072735       0.62633858
C        0.82403953       4.09698041       3.13252758      -2.63153322      -0.42534257      -0.72560410
Na      -0.13847213       3.96446659       3.20765225       2.45943320       0.51527474      -0.12983478
7
Lattice="5.0 0.0 0.0 0.0 5.0 0.0 0.0 0.0 5.0" Properties=species:S:1:pos:R:3:forces:R:3 init_method=box calculator=MACECalculator status=locally_optimized go_method=random id=1 lo_method=asebfgs relaxed=T energy=-2794.5991891299345 free_energy=-2794.5991891299345 stress="-0.004467122389630511 0.012536732932116972 -0.010604245145035305 0.012536732932116972 -0.0545612659579253 0.025377008458872644 -0.010604245145035305 0.025377008458872644 -0.051441346006129464" pbc="T T T"
C        2.13923670       2.45964389      -0.31110762       0.89277802      -0.65542161       0.49031300
C        2.13967200       5.62252396       1.42374118       0.04460995       0.13299051       0.56637137
C        1.59306538      -0.08309716       2.33953754      -0.43722864       0.02390785      -0.41624326
C        1.64555892       3.23421552       3.84577609      -0.60290134       0.46603091      -0.12971083
C        2.33416735       1.55316749       0.56665435      -0.22810031      -0.52731215       0.33709857
C        0.82403953       4.09698041       3.13252758      -2.35228822      -0.02789605      -0.59558007
Na      -0.13847213       3.96446659       3.20765225       2.68313054       0.58770054      -0.25224878
7
Lattice="5.0 0.0 0.0 0.0 5.0 0.0 0.0 0.0 5.0" Properties=species:S:1:pos:R:3:forces:R:3 init_method=box calculator=MACECalculator status=locally_optimized go_method=random id=1 lo_method=asebfgs relaxed=T energy=-2794.4787421858637 free_energy=-2794.4787421858637 stress="0.0032581904960837667 0.01587017632187002 -0.015360737902028897 0.01587017632187002 -0.06814573866408828 0.04012265404491767 -0.015360737902028897 0.04012265404491767 -0.06663749302784919" pbc="T T T"
C        2.13923670       2.45964389      -0.31110762       1.80968023      -2.08111103       2.00446067
C        2.13967200       5.62252396       1.42374118       0.30755373       0.88855987      -0.22007215
C        1.59306538      -0.08309716       2.33953754      -0.39947902      -0.47421686      -0.33798761
C        1.67535084       3.25406953       3.91059187      -2.01079997       2.62254720      -2.73666225
C        2.33416735       1.55316749       0.56665435      -0.10635211      -1.40216466       1.17918089
C        0.85001510       4.05628147       3.06795050      -3.85504318       0.12459386       0.85082752
Na      -0.11975637       3.96197124       3.20128065       4.25444032       0.32179162      -0.73974707
7
Lattice="5.0 0.0 0.0 0.0 5.0 0.0 0.0 0.0 5.0" Properties=species:S:1:pos:R:3:forces:R:3 init_method=box calculator=MACECalculator status=locally_optimized go_method=random id=1 lo_method=asebfgs relaxed=T energy=-2794.4968896654946 free_energy=-2794.4968896654946 stress="-0.01854128999214864 0.013032637843849284 -0.010893236609528375 0.013032637843849284 -0.06093159397933261 0.03310724423166395 -0.010893236609528375 0.03310724423166395 -0.05828242885685877" pbc="T T T"
C        2.19093915       2.42655764      -0.29343254       0.39764217       1.56847720      -1.52441667
C        2.13967200       5.62252396       1.42374118      -0.31530708      -0.75989416       1.46558739
C        1.59306538      -0.08309716       2.33953754      -0.42137358      -0.44182098      -0.76580555
C        1.67535084       3.25406953       3.91059187      -0.94813384       0.52633833      -1.01144266
C        2.33416735       1.55316749       0.56665435       0.22080173      -2.06063456       1.88156807
C        0.83294824       3.96266748       3.07726566       1.31614602       1.24295093       0.34655572
Na      -0.12210258       3.95438827       3.19014806      -0.24977543      -0.07541676      -0.39204629
7
Lattice="5.0 0.0 0.0 0.0 5.0 0.0 0.0 0.0 5.0" Properties=species:S:1:pos:R:3:forces:R:3 init_method=box calculator=MACECalculator status=locally_optimized go_method=random id=1 lo_method=asebfgs relaxed=T energy=-2794.3789560101636 free_energy=-2794.3789560101636 stress="-0.016479036891733898 0.012419527849012298 -0.008681849145361291 0.012419527849012298 -0.060867678809175645 0.03383330453567433 -0.008681849145361291 0.03383330453567433 -0.05697473615390729" pbc="T T T"
C        2.19093915       2.42655764      -0.29343254       0.33889317       1.64811710      -1.73499289
C        2.13967200       5.62252396       1.42374118      -0.06061552      -0.71518396       1.61800925
C        1.66854236      -0.05077190       2.39790395      -1.04520444      -0.66465755      -0.90878663
C        1.69744547       3.24336624       3.87221569      -1.01084192       0.24215318      -0.61450038
C        2.33416735       1.55316749       0.56665435       0.19913926      -1.76529853       1.59734407
C        0.83294824       3.96266748       3.07726566       1.81990275       1.24508541       0.54252099
Na      -0.12210258       3.95438827       3.19014806      -0.24127330       0.00978435      -0.49959440
7
Lattice="5.0 0.0 0.0 0.0 5.0 0.0 0.0 0.0 5.0" Properties=species:S:1:pos:R:3:forces:R:3 init_method=box calculator=MACECalculator status=locally_optimized go_method=random id=1 lo_method=asebfgs relaxed=T energy=-2794.3926856819053 free_energy=-2794.3926856819053 stress="-0.02291787630541927 0.015273106654175616 -0.013511827344087738 0.015273106654175616 -0.045463695161523515 0.019289630425105835 -0.013511827344087738 0.019289630425105835 -0.042182571348718084" pbc="T T T"
C        2.21268030       2.46626641      -0.32375286       0.47379832      -0.63436272       0.50581694
C        2.13967200       5.62252396       1.42374118      -0.09526383      -0.68169759       1.53206314
C        1.66854236      -0.05077190       2.39790395      -0.84272398      -0.21038999      -1.20045378
C        1.66385440       3.28768192       3.84841923       0.92577693      -1.79933687       1.47204559
C        2.33416735       1.55316749       0.56665435      -0.23456277       1.02162792      -1.12840018
C        0.83655927       3.96650220       3.08561200      -0.69253781       2.11479118      -0.43400162
Na      -0.12210258       3.95438827       3.19014806       0.46551315       0.18936807      -0.74707009
7
Lattice="5.0 0.0 0.0 0.0 5.0 0.0 0.0 0.0 5.0" Properties=species:S:1:pos:R:3:forces:R:3 init_method=box calculator=MACECalculator status=locally_optimized go_method=random id=1 lo_method=asebfgs relaxed=T energy=-2794.4533953097684 free_energy=-2794.4533953097684 stress="0.015701518124082683 0.009911763610776728 -0.008254250387135516 0.009911763610776728 -0.04529873792830553 0.01828444832273333 -0.008254250387135516 0.01828444832273333 -0.04215057151704079" pbc="T T T"
C        2.23484215       2.45336016      -0.32592802      -0.17933933       0.46856927      -0.47970912
C        2.13967200       5.62252396       1.42374118       0.12258733      -0.13687341       0.96460040
C        1.66854236      -0.05077190       2.39790395      -1.00548006      -0.48490578      -0.88535486
C        1.65058350       3.27517009       3.87663230       0.31056091      -1.00382943       0.65017895
C        2.33416735       1.55316749       0.56665435      -0.01802366      -0.11959292      -0.09068712
C        0.83496877       4.00792555       3.07149121      -3.94548333       0.83260759       0.81659909
Na      -0.14204958       3.94969594       3.17652291       4.71517813       0.44402467      -0.97562734
7
Lattice="5.0 0.0 0.0 0.0 5.0 0.0 0.0 0.0 5.0" Properties=species:S:1:pos:R:3:forces:R:3 init_method=box calculator=MACECalculator status=locally_optimized go_method=random id=1 lo_method=asebfgs relaxed=T energy=-2794.4007695296727 free_energy=-2794.4007695296727 stress="-0.05831907029432701 -0.0054117580317254955 0.01044786230128912 -0.0054117580317254955 -0.035231693571297455 0.010238596323627523 0.01044786230128912 0.010238596323627523 -0.03421641647377792" pbc="T T T"
C        2.25032246       2.49797814      -0.27600798      -0.82897184       0.78102356      -1.52687763
C        2.12807324       5.57154133       1.41605835       1.18507236       1.96858425      -0.96120830
C        1.66854236      -0.05077190       2.39790395      -0.97379703      -0.49462532      -0.45223053
C        1.63106232       3.25819607       3.83799356       0.97226171      -1.41725030       1.67165211
C        2.33416735       1.55316749       0.56665435      -0.47514934      -1.00571564       0.71127648
C        0.83694463       4.03513813       3.07636183       5.61588050       0.22976625       0.59663561
Na      -0.10775624       3.99953221       3.11428044      -5.49529636      -0.06178281      -0.03924774
7
Lattice="5.0 0.0 0.0 0.0 5.0 0.0 0.0 0.0 5.0" Properties=species:S:1:pos:R:3:forces:R:3 init_method=box calculator=MACECalculator status=locally_optimized go_method=random id=1 lo_method=asebfgs relaxed=T energy=-2794.292452633808 free_energy=-2794.292452633808 stress="-0.037011084407612936 -0.010886920706486645 0.015250318866792392 -0.010886920706486645 -0.03643484208628129 0.008796901550214911 0.015250318866792392 0.008796901550214911 -0.02753682138171294" pbc="T T T"
C        2.23117116       2.53084973      -0.20584284      -1.11070857      -0.11436580      -1.75938719
C        2.12807324       5.57154133       1.41605835      -0.10901430      -1.14689821       2.12986741
C        1.58690722      -0.02587647       2.41095638      -0.21580767      -0.00553677      -1.10343813
C        1.63106232       3.25819607       3.83799356       1.71308526      -2.56633594       3.26831680
C        2.31735816       1.47946468       0.58106992      -0.03998707       3.34906577      -2.76934312
C        0.83694463       4.03513813       3.07636183       2.41461378       0.55633319       0.31474137
Na      -0.11661542       4.01910184       3.11500161      -2.65218144      -0.07226224      -0.08075715
7
Lattice="5.0 0.0 0.0 0.0 5.0 0.0 0.0 0.0 5.0" Properties=species:S:1:pos:R:3:forces:R:3 init_method=box calculator=MACECalculator status=locally_optimized go_method=random id=1 lo_method=asebfgs relaxed=T energy=-2794.4484891850707 free_energy=-2794.4484891850707 stress="-0.015693578075873297 -0.005584054840919623 0.008965716514388693 -0.005584054840919623 -0.04436581272907451 0.02224166177864784 0.008965716514388693 0.02224166177864784 -0.050145118196262106" pbc="T T T"
C        2.23117116       2.53084973      -0.20584284       0.04474379      -1.54309263      -0.06954235
C        2.12807324       5.57154133       1.41605835       0.53566483      -0.15243133       0.74695333
C        1.63889965      -0.06959378       2.38399175      -1.37414521      -1.56010813       0.67691469
C        1.68240896       3.19864667       3.86294620      -0.48638384       0.28121877       0.35782199
C        2.31735816       1.47946468       0.58106992       0.12050001       2.63452440      -2.01587559
C        0.84613037       4.01728589       3.07583402       0.66708298       0.46434298       0.45071088
Na      -0.11661542       4.01910184       3.11500161       0.49253743      -0.12445406      -0.14698296
7
Lattice="5.0 0.0 0.0 0.0 5.0 0.0 0.0 0.0 5.0" Properties=species:S:1:pos:R:3:forces:R:3 init_method=box calculator=MACECalculator status=locally_optimized go_method=random id=1 lo_method=asebfgs relaxed=T energy=-2794.5031174227997 free_energy=-2794.5031174227997 stress="-0.016827511430035132 -0.00398003154571427 0.006136768326443739 -0.00398003154571427 -0.04249078638900769 0.01890640563659891 0.006136768326443739 0.01890640563659891 -0.04432545650324277" pbc="T T T"
C        2.23117116       2.53084973      -0.20584284      -0.03232090      -1.03610631      -0.70494906
C        2.12807324       5.57154133       1.41605835       0.43907694       0.49561067       0.01500807
C        1.59706976      -0.07495958       2.37033404      -0.58587124      -0.67120448      -0.15181081
C        1.68240896       3.19864667       3.86294620      -0.62294931       0.62452392       0.07380832
C        2.29189949       1.44388149       0.50336519       0.06227094       0.72328560       0.14610132
C        0.84613037       4.01728589       3.07583402       0.25325893       0.07626518       0.75881848
Na      -0.11661542       4.01910184       3.11500161       0.48653464      -0.21237458      -0.13697630
7
Lattice="5.0 0.0 0.0 0.0 5.0 0.0 0.0 0.0 5.0" Properties=species:S:1:pos:R:3:forces:R:3 init_method=box calculator=MACECalculator status=locally_optimized go_method=random id=1 lo_method=asebfgs relaxed=T energy=-2794.424601163636 free_energy=-2794.424601163636 stress="-0.005065439188481669 -0.0028480094428661065 0.002795035004851236 -0.0028480094428661065 -0.038936560263484486 0.014271181555832986 0.002795035004851236 0.014271181555832986 -0.036624815488368996" pbc="T T T"
C        2.23117116       2.53084973      -0.20584284      -0.06076230      -1.29374731      -0.64117055
C        2.12807324       5.57154133       1.41605835       0.08638831      -0.62389219       1.27756331
C        1.64973490      -0.15106067       2.39028028      -0.01877959       0.99603212      -1.83051335
C        1.68240896       3.19864667       3.86294620      -0.17482678      -0.38776626       1.11727322
C        2.33582224       1.43225029       0.51933082      -0.19315347       1.48994518      -0.42739495
C        0.84613037       4.01728589       3.07583402      -1.95472195       0.08688719       0.65154700
Na      -0.12491595       4.02279907       3.11196007       2.31585579      -0.26745873      -0.14730468
7
Lattice="5.0 0.0 0.0 0.0 5.0 0.0 0.0 0.0 5.0" Properties=species:S:1:pos:R:3:forces:R:3 init_method=box calculator=MACECalculator status=locally_optimized go_method=random id=1 lo_method=asebfgs relaxed=T energy=-2794.389177985944 free_energy=-2794.389177985944 stress="-0.009652303777944283 -0.007187325205741022 0.00868180896712509 -0.007187325205741022 -0.0423962923782941 0.020710447852379615 0.00868180896712509 0.020710447852379615 -0.047226302572753565" pbc="T T T"
C        2.23117116       2.53084973      -0.20584284      -0.01107543      -1.58816817      -0.35513773
C        2.05297621       5.55762741       1.40147879       1.17999464       1.00144629      -0.60080790
C        1.65740597      -0.15934164       2.36731531      -0.83480802       0.01143182      -0.49488104
C        1.68240896       3.19864667       3.86294620      -0.37702984      -0.08959485       0.82374499
C        2.33582224       1.43225029       0.51933082      -0.42592068       1.20359532      -0.17636710
C        0.84613037       4.01728589       3.07583402      -1.57227920      -0.30139851       0.94068171
Na      -0.12491595       4.02279907       3.11196007       2.04111853      -0.23731189      -0.13723292
7
Lattice="5.0 0.0 0.0 0.0 5.0 0.0 0.0 0.0 5.0" Properties=species:S:1:pos:R:3:forces:R:3 init_method=box calculator=MACECalculator status=locally_optimized go_method=random id=1 lo_method=asebfgs relaxed=T energy=-2794.380596767958 free_energy=-2794.380596767958 stress="-0.03576575365920691 -0.011587237792959294 0.015116249612899044 -0.011587237792959294 -0.040796604602843275 0.020231823372226985 0.015116249612899044 0.020231823372226985 -0.049200975124833284" pbc="T T T"
C        2.23117116       2.53084973      -0.20584284      -0.13524183      -1.44069001      -0.52611618
C        2.05297621       5.55762741       1.40147879       1.58333391       1.60498025      -1.32472643
C        1.64510797      -0.12472713       2.36626833      -1.29677345      -0.88321100       0.58764172
C        1.66720599       3.19647386       3.86830690      -0.47303521       0.33787200       0.57997200
C        2.33582224       1.43225029       0.51933082      -0.44481159       1.18643335      -0.25212098
C        0.83062048       4.05450002       3.08473967       2.70137014      -0.56210456       0.84426494
Na      -0.12491595       4.02279907       3.11196007      -1.93484197      -0.24328002       0.09108492
7
Lattice="5.0 0.0 0.0 0.0 5.0 0.0 0.0 0.0 5.0" Properties=species:S:1:pos:R:3:forces:R:3 init_method=box calculator=MACECalculator status=locally_optimized go_method=random id=1 lo_method=asebfgs relaxed=T energy=-2794.060587560685 free_energy=-2794.060587560685 stress="-0.016439407915701223 -0.008619583143275864 0.013033682692522277 -0.008619583143275864 -0.04714654331248862 0.03519072871553362 0.013033682692522277 0.03519072871553362 -0.07214681352655128" pbc="T T T"
C        2.21335689       2.55587909      -0.20254934       0.68562266      -3.53912363       1.47089537
C        1.97132823       5.58323574       1.44923701       3.11906972       4.72430100      -5.24397905
C        1.64510797      -0.12472713       2.36626833      -2.03473341      -2.38537812       3.02872792
C        1.66720599       3.19647386       3.86830690      -1.06595948       1.19864480      -0.16904936
C        2.33531500       1.43048543       0.52010482      -0.98197148       1.20834104       0.17468484
C        0.84736750       4.08563017       3.14908628      -1.61569854      -1.48973966       0.32274848
Na      -0.11974305       4.00428743       3.08821060       1.89367053       0.28295457       0.41597180
7
Lattice="5.0 0.0 0.0 0.0 5.0 0.0 0.0 0.0 5.0" Properties=species:S:1:pos:R:3:forces:R:3 init_method=box calculator=MACECalculator status=locally_optimized go_method=random id=1 lo_method=asebfgs relaxed=T energy=-2794.1899268151274 free_energy=-2794.1899268151274 stress="-0.022939379255879824 -0.0116611123201105 0.01314963362332077 -0.0116611123201105 -0.04888813393284139 0.03220951342050678 0.01314963362332077 0.03220951342050678 -0.0625972275855052" pbc="T T T"
C        2.21335689       2.55587909      -0.20254934       0.61745836      -3.21083379       1.06910844
C        1.96048473       5.63325606       1.47164588       2.38308542       2.94116147      -3.38830071
C        1.56795225      -0.14670753       2.34485393      -0.54220553      -0.40258171       0.74213493
C        1.66720599       3.19647386       3.86830690      -0.71912577       0.74824502       0.30236896
C        2.33631757       1.41304802       0.50872678      -0.93932928       1.53976996       0.22934799
C        0.84736750       4.08563017       3.14908628      -2.42006008      -1.70135833       0.46355448
Na      -0.11974305       4.00428743       3.08821060       1.62017689       0.08559739       0.58178591
7
Lattice="5.0 0.0 0.0 0.0 5.0 0.0 0.0 0.0 5.0" Properties=species:S:1:pos:R:3:forces:R:3 init_method=box calculator=MACECalculator status=locally_optimized go_method=random id=1 lo_method=asebfgs relaxed=T energy=-2794.020595165588 free_energy=-2794.020595165588 stress="-0.0700645507001002 -0.024218810791043887 0.02037462615929225 -0.024218810791043887 -0.052321763246419295 0.03917160719660563 0.02037462615929225 0.03917160719660563 -0.07506386542310199" pbc="T T T"
C        2.21335689       2.55587909      -0.20254934       0.75381390      -3.78451698       1.42616407
C        1.96048473       5.63325606       1.47164588       2.89940027       3.62863653      -4.10655802
C        1.56012658      -0.12634749       2.31721108      -1.73665116      -2.50587282       3.07324088
C        1.66720599       3.19647386       3.86830690      -0.68862419       0.83173922       0.29880918
C        2.34166440       1.39729038       0.52716229      -0.72073321       3.22591100      -1.40480024
C        0.84813007       4.10243746       3.14940271       4.46831184      -0.88357515       0.48076590
Na      -0.09713114       4.03083603       3.12955161      -4.97551746      -0.51232180       0.23237822
7
Lattice="5.0 0.0 0.0 0.0 5.0 0.0 0.0 0.0 5.0" Properties=species:S:1:pos:R:3:forces:R:3 init_method=box calculator=MACECalculator status=locally_optimized go_method=random id=1 lo_method=asebfgs relaxed=T energy=-2793.9859010426308 free_energy=-2793.9859010426308 stress="-0.029286153026290524 -0.041510656151767064 0.045791989778914424 -0.041510656151767064 -0.04935938885933126 0.02706983781264793 0.045791989778914424 0.02706983781264793 -0.056509831616458936" pbc="T T T"
C        2.36866500       2.50026115      -0.21100734      -2.34888196      -0.14883212      -1.75542638
C        1.96048473       5.63325606       1.47164588       2.17301518       1.89355847      -2.11191649
C        1.56012658      -0.12634749       2.31721108      -1.81561945      -2.43860260       2.94910686
C        1.66720599       3.19647386       3.86830690       1.34012167      -1.06834047       2.63882021
C        2.33227587       1.43747156       0.60285955       0.38769134       3.92229311      -3.17669659
C        0.84813007       4.10243746       3.14940271       1.99132024      -1.92160319       1.10059478
Na      -0.10476001       4.02452211       3.13254706      -1.72764702      -0.23847320       0.35551761
7
Lattice="5.0 0.0 0.0 0.0 5.0 0.0 0.0 0.0 5.0" Properties=species:S:1:pos:R:3:forces:R:3 init_method=box calculator=MACECalculator status=locally_optimized go_method=random id=1 lo_method=asebfgs relaxed=T energy=-2794.1376211292177 free_energy=-2794.1376211292177 stress="-0.010611716881823014 -0.02922750547383451 0.03361405618774008 -0.02922750547383451 -0.04853827211373672 0.023389393859667585 0.03361405618774008 0.023389393859667585 -0.04954751581539873" pbc="T T T"
C        2.34122831       2.48083889      -0.21976106      -2.27309802       1.17553940      -2.76390223
C        2.04790046       5.67677097       1.47983010      -0.46900107      -3.74184906       4.03787966
C        1.61349147      -0.14753413       2.36106297      -0.45102535       0.64957805      -0.40560903
C        1.66720599       3.19647386       3.86830690       1.63488103      -1.90247377       3.28296720
C        2.33436375       1.44418423       0.60282330       1.04756763       5.02502326      -4.73097993
C        0.84126821       4.10056777       3.14768909       0.43109281      -1.12315556       0.24877520
Na      -0.11849206       4.02614355       3.13826232       0.07958296      -0.08266233       0.33086914
7
Lattice="5.0 0.0 0.0 0.0 5.0 0.0 0.0 0.0 5.0" Properties=species:S:1:pos:R:3:forces:R:3 init_method=box calculator=MACECalculator status=locally_optimized go_method=random id=1 lo_method=asebfgs relaxed=T energy=-2794.1252562188415 free_energy=-2794.1252562188415 stress="0.011727058805347837 -0.03102857883977073 0.038335970712715876 -0.03102857883977073 -0.05503932020611677 0.029144774457358358 0.038335970712715876 0.029144774457358358 -0.055339785235288846" pbc="T T T"
C        2.31157230       2.47444652      -0.22408707      -2.42456827       1.06379864      -2.58503583
C        2.02233469       5.67705759       1.48961738       0.27324534      -2.07000254       2.20969243
C        1.61349147      -0.14753413       2.36106297      -0.20468706       0.57832494      -0.32468561
C        1.58970858       3.16607242       3.87807140       1.92082970      -1.77254928       3.05950088
C        2.33436375       1.44418423       0.60282330       0.77681414       4.05412257      -3.69200251
C        0.85934292       4.11102502       3.12761955      -4.28585037      -2.07518367       1.07082522
Na      -0.11849206       4.02614355       3.13826232       3.94421652       0.22148933       0.26170543
7
Lattice="5.0 0.0 0.0 0.0 5.0 0.0 0.0 0.0 5.0" Properties=species:S:1:pos:R:3:forces:R:3 init_method=box calculator=MACECalculator status=locally_optimized go_method=random id=1 lo_method=asebfgs relaxed=T energy=-2793.9993661167964 free_energy=-2793.9993661167964 stress="0.009158577707565034 -0.032196741842216214 0.04091557213689478 -0.032196741842216214 -0.05411768244902081 0.029305508463621704 0.04091557213689478 0.029305508463621704 -0.05282454780328751" pbc="T T T"
C        2.29866976       2.51979830      -0.16499289      -2.34579858       0.91947695      -3.19742449
C        2.02233469       5.67705759       1.48961738       0.18896082      -2.35060226       2.49153707
C        1.61349147      -0.14753413       2.36106297      -0.13866922       0.82951705      -0.61821798
C        1.61944405       3.19886921       3.87452390       1.95195816      -2.15841653       3.77002553