7
Lattice="5.0 0.0 0.0 0.0 5.0 0.0 0.0 0.0 5.0" Properties=species:S:1:pos:R:3:forces:R:3 init_method=box calculator=MACECalculator status=locally_optimized go_method=canonical_basin_hopping id=2 lo_method=asebfgs relaxed=T energy=-2794.731553621506 free_energy=-2794.731553621506 stress="-0.021707298261157467 -0.00010274733988539531 0.00022088611239213423 -0.00010274733988539531 -0.044701676270477345 0.01602063641971046 0.00022088611239213423 0.01602063641971046 -0.04405744903528474" pbc="T T T"
C        2.19395046       2.47831909      -0.17431544      -0.00230506       0.01325221       0.01286377
C        2.16795492       5.68944444       1.64229302       0.01572522      -0.02455914      -0.00781028
C        1.55073702      -0.09316146       2.43345127      -0.00150717      -0.01567516      -0.01413373
C        1.58158263       3.26631727       4.04024253      -0.00229784       0.01078572       0.01281840
C        2.29284951       1.57864415       0.73259690      -0.01208340      -0.00566872       0.01198468
C        0.81101879       4.08389526       3.23897831       0.02545199       0.00236600      -0.02849059
Na      -0.15012314       4.05235401       3.26013490      -0.02298373       0.01949908       0.01276776
7
Lattice="5.0 0.0 0.0 0.0 5.0 0.0 0.0 0.0 5.0" Properties=species:S:1:pos:R:3:forces:R:3 init_method=box calculator=MACECalculator status=locally_optimized go_method=canonical_basin_hopping id=2 lo_method=asebfgs relaxed=T energy=-2794.658164692137 free_energy=-2794.658164692137 stress="-0.02315821717021195 -0.012265795456844369 0.01359738469764364 -0.012265795456844369 -0.04524326673490896 0.01865814033344493 0.01359738469764364 0.01865814033344493 -0.04769410672487967" pbc="T T T"
C        2.20571832       2.47895637      -0.14656063      -0.79039955       1.09801380      -1.21544198
C        2.13792180       5.61971287       1.60444939       0.98561642       1.64435591      -1.28860091
C        1.55073702      -0.09316146       2.43345127      -0.59678858      -0.72057559       0.57477524
C        1.58374511       3.28203357       4.03491385       0.55950478      -0.77768763       0.83279156
C        2.27026007       1.57059907       0.73616086       0.00064400      -0.65394248       0.44726061
C        0.81101879       4.08389526       3.23897831      -0.14644351      -0.60791160       0.65067640
Na      -0.15012314       4.05235401       3.26013490      -0.01213355       0.01774759      -0.00146093
7
Lattice="5.0 0.0 0.0 0.0 5.0 0.0 0.0 0.0 5.0" Properties=species:S:1:pos:R:3:forces:R:3 init_method=box calculator=MACECalculator status=locally_optimized go_method=canonical_basin_hopping id=2 lo_method=asebfgs relaxed=T energy=-2794.363012628437 free_energy=-2794.363012628437 stress="-0.048472769364539287 -0.025671288103408785 0.020945370975879427 -0.025671288103408785 -0.06554240737473603 0.036423237664703435 0.020945370975879427 0.036423237664703435 -0.06108108306333934" pbc="T T T"
C        2.20571832       2.47895637      -0.14656063      -1.45095371       3.25675233      -3.29018520
C        2.03867476       5.70140977       1.54489871      -0.41434929      -3.62940616       3.80709754
C        1.55073702      -0.09316146       2.43345127      -0.12777381       0.71427503      -0.60176807
C        1.58374511       3.28203357       4.03491385       0.86308518      -1.28787706       1.67913477
C        2.27026007       1.57059907       0.73616086       0.69511205       2.05432876      -2.12549257
C        0.78753078       4.17667582       3.24999064       5.87802999      -0.43788806       0.07769401
Na      -0.15012314       4.05235401       3.26013490      -5.44315041      -0.67018483       0.45351951
7
Lattice="5.0 0.0 0.0 0.0 5.0 0.0 0.0 0.0 5.0" Properties=species:S:1:pos:R:3:forces:R:3 init_method=box calculator=MACECalculator status=locally_optimized go_method=canonical_basin_hopping id=2 lo_method=asebfgs relaxed=T energy=-2794.4315381505353 free_energy=-2794.4315381505353 stress="-0.05572777280111691 -0.03200086262125403 0.02901923222942031 -0.03200086262125403 -0.056067113066416825 0.03090287308061204 0.02901923222942031 0.03090287308061204 -0.059748459052097545" pbc="T T T"
C        2.20571832       2.47895637      -0.14656063      -1.25422510       2.25220036      -2.30866081
C        2.02991449       5.66238053       1.59316224       1.97645671       1.95597046      -1.89071965
C        1.55073702      -0.09316146       2.43345127      -1.01909778      -0.91268925       1.21309063
C        1.58374511       3.28203357       4.03491385       0.38659030      -0.58191894       0.97783486
C        2.27026007       1.57059907       0.73616086      -0.16602731      -0.65827766       0.46037362
C        0.78753078       4.17667582       3.24999064       5.32793573      -1.38842411       1.07430642
Na      -0.15012314       4.05235401       3.26013490      -5.25163256      -0.66686086       0.47377492
7
Lattice="5.0 0.0 0.0 0.0 5.0 0.0 0.0 0.0 5.0" Properties=species:S:1:pos:R:3:forces:R:3 init_method=box calculator=MACECalculator status=locally_optimized go_method=canonical_basin_hopping id=2 lo_method=asebfgs relaxed=T energy=-2794.490477856134 free_energy=-2794.490477856134 stress="-0.03734252989984991 -0.027969302044467362 0.027894273571080853 -0.027969302044467362 -0.05480658878043545 0.029147687068362686 0.027894273571080853 0.029147687068362686 -0.0577646543140741" pbc="T T T"
C        2.22301854       2.48272328      -0.15973596      -1.28599925       1.39102047      -1.36505766
C        2.02991449       5.66238053       1.59316224       1.67205029       1.33693430      -1.21951648
C        1.56159491      -0.09607153       2.44717389      -0.92437749      -0.80231342       1.01602433
C        1.58374511       3.28203357       4.03491385       0.67735615      -0.92627742       1.20837262
C        2.25526492       1.57472141       0.75849896       0.00997203       0.74281669      -0.98587978
C        0.79738310       4.16556644       3.24408680       2.18567342      -1.49855894       0.93997345
Na      -0.15012314       4.05235401       3.26013490      -2.33467515      -0.24362169       0.40608352
7
Lattice="5.0 0.0 0.0 0.0 5.0 0.0 0.0 0.0 5.0" Properties=species:S:1:pos:R:3:forces:R:3 init_method=box calculator=MACECalculator status=locally_optimized go_method=canonical_basin_hopping id=2 lo_method=asebfgs relaxed=T energy=-2794.251382019219 free_energy=-2794.251382019219 stress="0.04084537458591701 -0.011541392343847824 0.015443945238630493 -0.011541392343847824 -0.05331885656755097 0.027745559663043165 0.015443945238630493 0.027745559663043165 -0.05423061245365889" pbc="T T T"
C        2.22486170       2.47159608      -0.15332268      -1.34281734       1.22330735      -1.17970664
C        2.02991449       5.66238053       1.59316224       0.88092216       0.26500290      -0.12659832
C        1.56159491      -0.09607153       2.44717389      -1.57358357      -1.37756224       1.49952399
C        1.58374511       3.28203357       4.03491385       0.67785768      -1.02113252       1.26674781
C        2.25526492       1.57472141       0.75849896       0.42206226       1.34946789      -1.52078001
C        0.78760720       4.10709180       3.28370360      -6.64834461      -1.02881658       0.08842516
Na      -0.23419960       4.04850325       3.28794326       7.58390344       0.58973320      -0.02761201
7
Lattice="5.0 0.0 0.0 0.0 5.0 0.0 0.0 0.0 5.0" Properties=species:S:1:pos:R:3:forces:R:3 init_method=box calculator=MACECalculator status=locally_optimized go_method=canonical_basin_hopping id=2 lo_method=asebfgs relaxed=T energy=-2794.2388829537717 free_energy=-2794.2388829537717 stress="0.03796154827424807 0.003100155028695868 0.0009093897811226172 0.003100155028695868 -0.058779661812099246 0.03212963367339525 0.0009093897811226172 0.03212963367339525 -0.06017984238958373" pbc="T T T"
C        2.22457499       2.50350596      -0.13277319       0.07337706      -0.86661975       0.77305646
C        2.02991449       5.66238053       1.59316224       0.82112896       0.61995277      -0.45247888
C        1.58204548      -0.13069435       2.45142490      -1.60315516      -1.58703012       1.78201812
C        1.54871200       3.24428553       4.13407211      -1.22616635       2.13209507      -2.02067067
C        2.25526492       1.57472141       0.75849896       0.52173283       0.20097854      -0.29704805
C        0.78760720       4.10709180       3.28370360      -6.40460297      -1.00219670       0.15321311
Na      -0.23419960       4.04850325       3.28794326       7.81768562       0.50282019       0.06190990
7
Lattice="5.0 0.0 0.0 0.0 5.0 0.0 0.0 0.0 5.0" Properties=species:S:1:pos:R:3:forces:R:3 init_method=box calculator=MACECalculator status=locally_optimized go_method=canonical_basin_hopping id=2 lo_method=asebfgs relaxed=T energy=-2794.4787416783843 free_energy=-2794.4787416783843 stress="-0.01952121869589384 -0.0015800004045448345 0.002647235246087502 -0.0015800004045448345 -0.050039173974606284 0.021351112082087637 0.002647235246087502 0.021351112082087637 -0.049340136965635085" pbc="T T T"
C        2.23538008       2.50006132      -0.13117942      -0.20683221      -0.09512608       0.03660878
C        2.02991449       5.66238053       1.59316224       0.79554071       0.04203724       0.14623310
C        1.57234413      -0.13640905       2.44631640      -2.06341099      -1.80133683       1.74029893
C        1.54871200       3.24428553       4.13407211      -1.19306505       1.84650743      -2.00047119
C        2.25526492       1.57472141       0.75849896       0.29411122       0.12747569      -0.18937405
C        0.72168176       4.06782030       3.25626858       3.53312291      -0.03121099       0.21675391
Na      -0.23419960       4.04850325       3.28794326      -1.15946659      -0.08834645       0.04995051
7
Lattice="5.0 0.0 0.0 0.0 5.0 0.0 0.0 0.0 5.0" Properties=species:S:1:pos:R:3:forces:R:3 init_method=box calculator=MACECalculator status=locally_optimized go_method=canonical_basin_hopping id=2 lo_method=asebfgs relaxed=T energy=-2794.402092871872 free_energy=-2794.402092871872 stress="-0.041830141268734564 -0.002799702808418429 0.0012886872031905691 -0.002799702808418429 -0.04477506428066961 0.01756836195332903 0.0012886872031905691 0.01756836195332903 -0.04374723684916468" pbc="T T T"
C        2.23538008       2.50006132      -0.13117942      -0.41934921       0.74886763      -0.79237552
C        2.07913181       5.71438258       1.63233167       0.11159385      -1.44436151       1.32245350
C        1.57234413      -0.13640905       2.44631640      -1.70001237      -0.87902975       1.17402825
C        1.54871200       3.24428553       4.13407211      -1.12217668       1.84437174      -1.84484593
C        2.25841033       1.57558736       0.74914061       0.38387361      -0.04979343       0.09237116
C        0.70311299       4.10789202       3.25482557       8.26681990       0.18370909      -0.30151517
Na      -0.23812855       4.04623986       3.28954047      -5.52074911      -0.40376376       0.34988371
7
Lattice="5.0 0.0 0.0 0.0 5.0 0.0 0.0 0.0 5.0" Properties=species:S:1:pos:R:3:forces:R:3 init_method=box calculator=MACECalculator status=locally_optimized go_method=canonical_basin_hopping id=2 lo_method=asebfgs relaxed=T energy=-2794.34535920624 free_energy=-2794.34535920624 stress="0.021588552716517027 -0.0064066566044189985 0.00783017222922895 -0.0064066566044189985 -0.05346882341771119 0.026880400624473003 0.00783017222922895 0.026880400624473003 -0.055032914040233576" pbc="T T T"
C        2.23538008       2.50006132      -0.13117942      -0.80532819       1.31073864      -1.30912440
C        2.07913181       5.71438258       1.63233167       0.46504728      -0.46409771       0.26075216
C        1.56627584      -0.15444947       2.42795791      -0.78846294      -0.01829976       0.62644110
C        1.54871200       3.24428553       4.13407211      -0.81711339       1.68421444      -1.50460729
C        2.25841033       1.57558736       0.74914061       0.55769876      -0.81318150       0.84103546
C        0.72282218       4.19491740       3.21951409      -3.47624476      -2.37187884       1.19174327
Na      -0.24676804       4.06008156       3.29462357       4.86440324       0.67250471      -0.10624030
7
Lattice="5.0 0.0 0.0 0.0 5.0 0.0 0.0 0.0 5.0" Properties=species:S:1:pos:R:3:forces:R:3 init_method=box calculator=MACECalculator status=locally_optimized go_method=canonical_basin_hopping id=2 lo_method=asebfgs relaxed=T energy=-2794.2921933868697 free_energy=-2794.2921933868697 stress="0.025038759421525433 0.01175012811547753 -0.012854505535941278 0.01175012811547753 -0.06251314949707353 0.03324398503522562 -0.012854505535941278 0.03324398503522562 -0.060603851789144444" pbc="T T T"
C        2.18146180       2.50853524      -0.16626199       1.68258946      -2.83648641       2.78676734
C        2.08610968       5.71200268       1.63290324       0.28760541      -0.21403159       0.03028900
C        1.56627584      -0.15444947       2.42795791      -0.91382227      -0.50750757       0.79555806
C        1.54871200       3.24428553       4.13407211      -2.88575783       3.94904918      -4.00098881
C        2.25841033       1.57558736       0.74914061       0.48042171       0.29444151      -0.23005002
C        0.74442090       4.12981878       3.20193718      -5.69772544      -1.03891063       1.19667697
Na      -0.24676804       4.06008156       3.29462357       7.04668895       0.35344551      -0.57825253
7
Lattice="5.0 0.0 0.0 0.0 5.0 0.0 0.0 0.0 5.0" Properties=species:S:1:pos:R:3:forces:R:3 init_method=box calculator=MACECalculator status=locally_optimized go_method=canonical_basin_hopping id=2 lo_method=asebfgs relaxed=T energy=-2794.311825564572 free_energy=-2794.311825564572 stress="0.004919124093652361 0.009392989574030664 -0.011922217830623057 0.009392989574030664 -0.06941194686258448 0.03911217620247442 -0.011922217830623057 0.03911217620247442 -0.0658527937498715" pbc="T T T"
C        2.18146180       2.50853524      -0.16626199       1.63946867      -2.64679358       2.71033274
C        2.08610968       5.71200268       1.63290324       0.69669693       0.15556254      -0.25126097
C        1.62132023      -0.16321584       2.42414802      -1.93141034      -1.41631076       1.70088065
C        1.54871200       3.24428553       4.13407211      -3.02557600       4.20173059      -4.29997196
C        2.20978347       1.59853684       0.76507370       0.62338554       0.21108207      -0.22496508
C        0.74442090       4.12981878       3.20193718      -2.02436242      -0.42222250       0.63470460
Na      -0.22795087       4.10313657       3.27868076       4.02179762      -0.08304837      -0.26971998
7
Lattice="5.0 0.0 0.0 0.0 5.0 0.0 0.0 0.0 5.0" Properties=species:S:1:pos:R:3:forces:R:3 init_method=box calculator=MACECalculator status=locally_optimized go_method=canonical_basin_hopping id=2 lo_method=asebfgs relaxed=T energy=-2794.2101156506224 free_energy=-2794.2101156506224 stress="-0.014168574578994494 0.013738753677903948 -0.015443634423365573 0.013738753677903948 -0.07881953484911136 0.04883617159613705 -0.015443634423365573 0.04883617159613705 -0.07514203886262245" pbc="T T T"
C        2.12893528       2.51167902      -0.15745514       2.73343722      -3.87690624       3.88055550
C        2.08610968       5.71200268       1.63290324       0.76760880       0.33853180      -0.43689537
C        1.62132023      -0.16321584       2.42414802      -1.97035651      -1.50527796       1.67451655
C        1.54871200       3.24428553       4.13407211      -4.05962597       5.53330519      -5.69001822
C        2.20978347       1.59853684       0.76507370       0.51126773      -0.03661323       0.07020988
C        0.73311316       4.12973266       3.17748519       0.13826726      -0.24262300       0.68657334
Na      -0.22795087       4.10313657       3.27868076       1.87940148      -0.21041655      -0.18494168
7
Lattice="5.0 0.0 0.0 0.0 5.0 0.0 0.0 0.0 5.0" Properties=species:S:1:pos:R:3:forces:R:3 init_method=box calculator=MACECalculator status=locally_optimized go_method=canonical_basin_hopping id=2 lo_method=asebfgs relaxed=T energy=-2794.0176809539726 free_energy=-2794.0176809539726 stress="-0.01875998767325334 0.01880089576823538 -0.0196501785311507 0.01880089576823538 -0.07939522376305297 0.048961100793150907 -0.0196501785311507 0.048961100793150907 -0.07482581506888997" pbc="T T T"
C        2.12893528       2.51167902      -0.15745514       2.62738186      -1.79525857       1.76882676
C        2.08610968       5.71200268       1.63290324       0.94226098       2.03684559      -2.21581278
C        1.62132023      -0.16321584       2.42414802      -1.59827643      -0.86118569       0.97133315
C        1.54241979       3.24194254       4.13452815      -4.48300511       6.20303339      -6.39200558
C        2.19678024       1.62435785       0.71096331       0.54222304      -4.83330646       4.89672130
C        0.73150556       4.11205218       3.17335561       0.54688733      -0.42709953       1.14723489
Na      -0.22795087       4.10313657       3.27868076       1.42252833      -0.32302874      -0.17629775
7
Lattice="5.0 0.0 0.0 0.0 5.0 0.0 0.0 0.0 5.0" Properties=species:S:1:pos:R:3:forces:R:3 init_method=box calculator=MACECalculator status=locally_optimized go_method=canonical_basin_hopping id=2 lo_method=asebfgs relaxed=T energy=-2793.8877459605637 free_energy=-2793.8877459605637 stress="0.02549934409059965 0.024374371398047195 -0.034892988273656174 0.024374371398047195 -0.08319092066620933 0.05336366849178476 -0.034892988273656174 0.05336366849178476 -0.0774510753359501" pbc="T T T"
C        2.12893528       2.51167902      -0.15745514       2.58517591      -1.71265597       1.72025895
C        2.12715019       5.69314770       1.57072789      -0.02863365      -0.01294649       0.11387981
C        1.64089057      -0.16887995       2.38895508      -1.80496881      -0.92142947       1.08822986
C        1.54241979       3.24194254       4.13452815      -4.49975993       6.23661075      -6.40725732
C        2.19678024       1.62435785       0.71096331       0.97882221      -3.46813601       3.39443784
C        0.73150556       4.11205218       3.17335561      -3.51480219       0.35245011       1.59687020
Na      -0.24245562       4.12559526       3.35471582       6.28416647      -0.47389291      -1.50641934
7
Lattice="5.0 0.0 0.0 0.0 5.0 0.0 0.0 0.0 5.0" Properties=species:S:1:pos:R:3:forces:R:3 init_method=box calculator=MACECalculator status=locally_optimized go_method=canonical_basin_hopping id=2 lo_method=asebfgs relaxed=T energy=-2793.8567262094803 free_energy=-2793.8567262094803 stress="0.029273954487282382 0.027464298532785328 -0.0380713338842679 0.027464298532785328 -0.08683365669360167 0.0567749461804853 -0.0380713338842679 0.0567749461804853 -0.08070543477873354" pbc="T T T"
C        2.12893528       2.51167902      -0.15745514       2.52708192      -1.42303435       1.44031942
C        2.12505565       5.72176764       1.56772928      -0.53215901      -1.85022571       1.72652057
C        1.64089057      -0.16887995       2.38895508      -1.57142339      -0.37783802       0.65069869
C        1.54241979       3.24194254       4.13452815      -4.40018464       6.07298846      -6.24599951
C        2.19678024       1.62435785       0.71096331       1.08633036      -2.52409041       2.56658997
C        0.73236539       4.11174932       3.17381571      -3.47242457       0.56022701       1.39715232
Na      -0.24245562       4.12559526       3.35471582       6.36277934      -0.45802699      -1.53528145
7
Lattice="5.0 0.0 0.0 0.0 5.0 0.0 0.0 0.0 5.0" Properties=species:S:1:pos:R:3:forces:R:3 init_method=box calculator=MACECalculator status=locally_optimized go_method=canonical_basin_hopping id=2 lo_method=asebfgs relaxed=T energy=-2793.9426313376966 free_energy=-2793.9426313376966 stress="-0.042458732609071466 0.02627604471048198 -0.01931587628391196 0.02627604471048198 -0.0825777496752252 0.05415706704302643 -0.01931587628391196 0.05415706704302643 -0.07938072681173776" pbc="T T T"
C        2.12893528       2.51167902      -0.15745514       2.59665902      -2.01405462       1.94722373
C        2.12452730       5.72365694       1.56806162      -0.49235488      -2.95962784       2.61261023
C        1.65051814      -0.18752858       2.37718547      -1.89117481      -0.43046005       0.91873461
C        1.54241979       3.24194254       4.13452815      -4.24429785       5.82607647      -5.91315520
C        2.19692776       1.60069628       0.71040228       0.95655901      -0.66713488       0.86773725
C        0.73236539       4.11174932       3.17381571       7.79969050       0.77259304      -1.16500270
Na      -0.18201371       4.09527027       3.40874709      -4.72508099      -0.52739213       0.73185209
7
Lattice="5.0 0.0 0.0 0.0 5.0 0.0 0.0 0.0 5.0" Properties=species:S:1:pos:R:3:forces:R:3 init_method=box calculator=MACECalculator status=locally_optimized go_method=canonical_basin_hopping id=2 lo_method=asebfgs relaxed=T energy=-2794.3385440723414 free_energy=-2794.3385440723414 stress="-0.008473029802259547 0.0007255284021785449 -0.0030828422375792338 0.0007255284021785449 -0.06213463037826006 0.027473224188502378 -0.0030828422375792338 0.027473224188502378 -0.05094032431423613" pbc="T T T"
C        2.12922845       2.51290689      -0.15717781      -0.23348927       0.49459855       0.05332735
C        2.12452730       5.72365694       1.56806162      -0.68562548      -4.70064770       4.10706150
C        1.65051814      -0.18752858       2.37718547      -1.54328630       0.03537101       0.06349786
C        1.52373935       3.30242638       4.07728017      -0.19827804      -0.22583322      -0.11716601
C        2.25196684       1.67971119       0.84413965       0.61594202       3.75175496      -3.48700217
C        0.73922108       4.10963791       3.14813647       2.66653416       0.98190556      -0.20676291
Na      -0.18201371       4.09527027       3.40874709      -0.62179708      -0.33714916      -0.41295562
7
Lattice="5.0 0.0 0.0 0.0 5.0 0.0 0.0 0.0 5.0" Properties=species:S:1:pos:R:3:forces:R:3 init_method=box calculator=MACECalculator status=locally_optimized go_method=canonical_basin_hopping id=2 lo_method=asebfgs relaxed=T energy=-2794.4200241269355 free_energy=-2794.4200241269355 stress="-0.04866240267413474 0.0067685155306683 0.002575257992592598 0.0067685155306683 -0.03909056752596641 0.014326895008572035 0.002575257992592598 0.014326895008572035 -0.04564698569472857" pbc="T T T"
C        2.11666559       2.59662109      -0.13786469       1.51351130      -2.44245021       2.36480948
C        2.13279009       5.72743563       1.59694960      -0.52556567      -1.10207890       1.34316422
C        1.55417366      -0.12007042       2.43048901       0.01411582       0.65637145      -1.23052804
C        1.52373935       3.30242638       4.07728017      -1.80064538       1.79415086      -2.13323564
C        2.31608519       1.67309268       0.79828255      -0.19947959       0.93321540      -0.86316611
C        0.71607431       4.11818791       3.12401673       6.17432121       0.83758668      -0.55903888
Na      -0.18201371       4.09527027       3.40874709      -5.17625770      -0.67679529       1.07799498
7
Lattice="5.0 0.0 0.0 0.0 5.0 0.0 0.0 0.0 5.0" Properties=species:S:1:pos:R:3:forces:R:3 init_method=box calculator=MACECalculator status=locally_optimized go_method=canonical_basin_hopping id=2 lo_method=asebfgs relaxed=T energy=-2794.4338339296896 free_energy=-2794.4338339296896 stress="-0.049118783445119045 0.006251134266185095 0.0029961344709453757 0.006251134266185095 -0.0389494103425954 0.014284824526519848 0.0029961344709453757 0.014284824526519848 -0.04606734912945173" pbc="T T T"
C        2.11666559       2.59662109      -0.13786469       1.52550359      -2.44425178       2.37333376
C        2.13279009       5.72743563       1.59694960      -0.55111804      -1.09119853       1.27259689
C        1.54177600      -0.12471877       2.41540225       0.11815276       0.66347534      -1.11641146
C        1.52373935       3.30242638       4.07728017      -1.81075033       1.83748079      -2.17123007
C        2.31608519       1.67309268       0.79828255      -0.20129004       0.94596270      -0.86613903
C        0.71607431       4.11818791       3.12401673       6.12164211       0.76769365      -0.61010532
Na      -0.18201371       4.09527027       3.40874709      -5.20214004      -0.67916217       1.11795523
7
Lattice="5.0 0.0 0.0 0.0 5.0 0.0 0.0 0.0 5.0" Properties=species:S:1:pos:R:3:forces:R:3 init_method=box calculator=MACECalculator status=locally_optimized go_method=canonical_basin_hopping id=2 lo_method=asebfgs relaxed=T energy=-2794.4931013870114 free_energy=-2794.4931013870114 stress="-0.035219536773804676 -0.011510515877227775 0.022454866577361732 -0.011510515877227775 -0.028729480607115318 0.0019676318312780074 0.022454866577361732 0.0019676318312780074 -0.03061236213153671" pbc="T T T"
C        2.22533325       2.57122810      -0.14472024      -1.10769854       0.74165622      -0.87801418
C        2.13279009       5.72743563       1.59694960      -0.43396280      -1.00598332       1.19402088
C        1.48561557      -0.08009771       2.38306885       0.01847668      -0.20574588      -0.29041347
C        1.52373935       3.30242638       4.07728017       0.11323389      -0.04458101      -0.17689137
C        2.31608519       1.67309268       0.79828255       0.13618885       0.81881973      -0.77753000
C        0.71607431       4.11818791       3.12401673       6.48440215       0.45165665      -0.39111445
Na      -0.18201371       4.09527027       3.40874709      -5.21064022      -0.75582240       1.31994259
7
Lattice="5.0 0.0 0.0 0.0 5.0 0.0 0.0 0.0 5.0" Properties=species:S:1:pos:R:3:forces:R:3 init_method=box calculator=MACECalculator status=locally_optimized go_method=canonical_basin_hopping id=2 lo_method=asebfgs relaxed=T energy=-2794.576853888602 free_energy=-2794.576853888602 stress="0.007038651640281351 -0.006181837448131479 -5.4407797169164104e-05 -0.006181837448131479 -0.03494892478928142 0.005832742873058285 -5.4407797169164104e-05 0.005832742873058285 -0.03206212075601346" pbc="T T T"
C        2.22537064       2.57115501      -0.14499081      -0.86581384       0.31411520      -0.37487286
C        2.13279009       5.72743563       1.59694960      -0.51124330      -1.09956869       1.28855803
C        1.48561557      -0.08009771       2.38306885       0.16099026      -0.10267957      -0.31130547
C        1.52373935       3.30242638       4.07728017       0.40648920      -0.22629872      -0.02520297
C        2.31608519       1.67309268       0.79828255       0.18924615       1.06282688      -1.04437174
C        0.75790510       4.10269864       3.14944544      -1.72677735       0.58543002       1.61111754
Na      -0.17700433       4.11372197       3.40979758       2.34710887      -0.53382511      -1.14392252
7
Lattice="5.0 0.0 0.0 0.0 5.0 0.0 0.0 0.0 5.0" Properties=species:S:1:pos:R:3:forces:R:3 init_method=box calculator=MACECalculator status=locally_optimized go_method=canonical_basin_hopping id=2 lo_method=asebfgs relaxed=T energy=-2794.5390377463978 free_energy=-2794.5390377463978 stress="-0.02390078464315923 -0.006965781202060694 0.009963560513399304 -0.006965781202060694 -0.044039458823405896 0.013996244817481993 0.009963560513399304 0.013996244817481993 -0.042409260170623644" pbc="T T T"
C        2.16096270       2.50982600      -0.15466270      -0.48265468       0.93895172      -0.58013799
C        2.13279009       5.72743563       1.59694960      -0.72642196      -2.09918640       2.17045568
C        1.48561557      -0.08009771       2.38306885       0.13141993      -0.13577321      -0.33014969
C        1.52373935       3.30242638       4.07728017       0.35229167      -0.67169693       0.26978221
C        2.34141821       1.66719946       0.82051819       0.17039936       1.73619843      -1.76195351
C        0.75790510       4.10269864       3.14944544       2.63814506       0.80191018       0.10158103
Na      -0.14815069       4.10886153       3.44478817      -2.08317938      -0.57040380       0.13042227
7
Lattice="5.0 0.0 0.0 0.0 5.0 0.0 0.0 0.0 5.0" Properties=species:S:1:pos:R:3:forces:R:3 init_method=box calculator=MACECalculator status=locally_optimized go_method=canonical_basin_hopping id=2 lo_method=asebfgs relaxed=T energy=-2794.4874714725274 free_energy=-2794.4874714725274 stress="-0.024351850549429514 -0.013265536216047603 0.0099894436956674 -0.013265536216047603 -0.045979951769630344 0.018609409505131694 0.0099894436956674 0.018609409505131694 -0.04810384762126478" pbc="T T T"
C        2.13039942       2.57767396      -0.10076807       0.39777139      -1.16084464       0.92557588
C        2.07534807       5.69696455       1.62397195       1.86339321       2.88644741      -2.33530814
C        1.48561557      -0.08009771       2.38306885      -1.38321576      -2.00346537       1.48712931
C        1.52398935       3.30253730       4.07745953      -0.34235009       0.45013365      -0.65973156
C        2.34141821       1.66719946       0.82051819      -0.54702899       0.11916641      -0.22207404
C        0.75790510       4.10269864       3.14944544      -0.41579268       0.32379110       1.63388972
Na      -0.15253813       4.11969134       3.46326655       0.42722293      -0.61522857      -0.82948116
7
Lattice="5.0 0.0 0.0 0.0 5.0 0.0 0.0 0.0 5.0" Properties=species:S:1:pos:R:3:forces:R:3 init_method=box calculator=MACECalculator status=locally_optimized go_method=canonical_basin_hopping id=2 lo_method=asebfgs relaxed=T energy=-2794.3509180156975 free_energy=-2794.3509180156975 stress="-0.008632034403325765 -0.017608372488583376 0.006815475508713592 -0.017608372488583376 -0.03757043027404974 0.011483898895345006 0.006815475508713592 0.011483898895345006 -0.038101365027923745" pbc="T T T"